Lammps init file written by MDPython after 9

2 atoms
2 atom types
1 bonds
1 bond types

-10.0 10.0 xlo xhi
-10.0 10.0 ylo yhi
-10.0 10.0 zlo zhi

Masses

1 0.9
2 1.9

Atoms # full style: index type group charge x y z
1 1 1 0 0.289865435549 0.227602913228 0.0
2 2 1 0 1.46269532 1.49218809373 0.0

Velocities # vx vy vz

1 0.993702486947 0.88629953539 0.0
2 -0.470701178027 -0.419826095711 0.0

Bonds # type i j

1 1 1 2

